{| class="toccolours" border="1" style="float: right; clear: right; margin: 0 0 1em 1em; border-collapse: collapse;"
!  | Kuprum(II) klorida
|-
| align="center" colspan="2" bgcolor="#ffffff" | 200px|kuprum(II) klorida dihidrat
|-
!  | Am
|-
| Nama sistematik
| Kuprum(II) klorida<br/>Kuprum diklorida
|-
| Nama-nama lain
| Kuprik klorida
|-
| Formula molekul
| CuCl<sub>2</sub>
|-
| Jisim molar
| 134.45 g/mol (kontang)
|-
| Rupa
| pepejal hablur </br>biru kehijauan (dihidrat) <br/> serbuk </br>kuning keperangan (kontang)
|-
| Nombor CAS
| [7447-39-4]
|-
!  | Sifat-sifat
|-
| fasa
| 3.386 g/cm<sup>3</sup>, solid
|-
| Keterlarutan dalam air
| 70.6 g/100 ml (0 °C)<br/>75.7 g/100 ml (25 °C)
|-
| Keterlarutan dalam metanol
| 68 g/100 ml (15 °C)
|-
| Keterlarutan dalam etanol
| 53 g/100 ml (15 °C)
|-
| Takat lebur
| 620 °C (kontang)
|-
| Takat didih
| 993 °C
|-
!  | Struktur
|-
| Geometri <br/>koordinatan
| Oktahedron
|-
| Struktur hablur
| Struktur CdI<sub>2</sub>
|-
| Momen dwikutub
| ? D
|-
!  | Bahaya
|-
| RSKB
| RSKB luaran
|-
| Pengelasan EU
| tidak disenaraikan
|-
| NFPA 704
| <!--  These are set on "very dangerous" as default- adjust according to actual values -->
|-
| Takat kilat
| tidak mudah terbakar
|-
| Nombor RTECS
| ?
|-
!  | Halaman data tambahan
|-
| Struktur dan<br/>sifat-sifat
| ''n'', ε<sub>r</sub>, dsb.
|-
| Data<br/> termodinamik
| Sifat dalam fasa<br>pepejal, cecair, gas
|-
| Data spektrum
| UU, IM, RMN, SJ
|-
!  | Sebatian-sebatian berkaitan
|-
| Anion-anion lain
| Kuprum(II) fluorida<br/>Kuprum(II) bromida<br/>Kuprum(I) iodida <!-- ini bukan ralat, kuprum(II) akan dioksidakan oleh ion iodida sehingga iodida menjadi molekul iodin, oleh itu kuprum(II) todak wujud -->
|-
| Kation-kation
| Kuprum(I) klorida<br/>Argentum klorida<br/>Aurum(III) klorida
|-
|  | <small>Kecuali dinyatakan sebaliknya, data yang diberikan untuk<br> bahan adalah pada keadaan piawai (pada 25 °C, 100 kPa)<br/>penafian dan rujukan Infobox</small>
|-
|}

'''Kuprum(II) klorida''' adalah dihidrat biru kehijauan.

Ia adalah ionik dan sangat agen pengoksidaan yang lemah. Ia mempunyai struktur hablur yang terdiri daripada unit-unit rangkai polimer CuC<sub>4</sub> mendatar dengar sisi-sisi bertentang yang dikongsi. Ia mengurai menjadi CuCl dan Cl<sub>2</sub> pada 1000 °C.

== Sifat-sifat kimia ==
Kuprum(II) klorida adalah sebatian ionik yang tercerai dalam larutan berair, tetapi koordinatan klorida kepada Cu<sup>2+</sup> juga berlaku secara separa. Ini bermakna bahawa larutan pekat CuCl<sub>2</sub> berwarna hijau, iaitu hasil gabungan daripada warna biru [Cu(H<sub>2</sub>O)<sub>6</sub>]<sup>2+</sup> dan warna kuning atau merah daripada kompleks-kompleks halida.

CuCl<sub>2</sub> juga bertindak sebagai asid Lewis lemah, contohnya dalam tindak balasnya dengan HCl (atau sumber-sumber klorida yang lain) untuk membentuk ion-ion kompleks CuCl<sub>3</sub><sup>-</sup> dan CuCl<sub>4</sub><sup>2-</sup>.

400px|''Keseimbangan CuCl<sub>2</sub> dengan ion klorida''

Sesetengah kompleks-kompleks ini boleh diasingkan daripada larutan berair dengan pembentukan hablur, dan hablur-hablur ini terbentuk dalam pelbagai jenis struktur (G/rajah 1).

480px|''Struktur sesetengah kompleks CuCl2''

Kuprum(II) klorida juga membentuk pelbagai jenis kompleks koordinatan dengan ligan seperti piridina atau trifenilfosfin oksida:

:CuCl<sub>2</sub>  +  2 C<sub>5</sub>H<sub>5</sub>N  →  [CuCl<sub>2</sub>(C<sub>5</sub>H<sub>5</sub>N)<sub>2</sub>]  (tetragon)

:CuCl<sub>2</sub>  +  2 (C<sub>6</sub>H<sub>5</sub>)<sub>3</sub>P=O  →  [CuCl<sub>2</sub>((C<sub>6</sub>H<sub>5</sub>)<sub>3</sub>P=O)<sub>2</sub>]  (tetrahedron)

Akan tetapi, sesetengah ligan-ligan lain seperti penurunan kepada kompleks kuprum(I).

Penurunan kepada kuprum(I) klorida boleh dihasilkan dengan mudah melalui pemanasan CuCl<sub>2</sub> pada suhu tinggi (kira-kira 1000 °C):

:2 CuCl<sub>2</sub>(p)  →  2 CuCl(p)  +  Cl<sub>2</sub>(g)

Akan tetapi, secara amnya adalah lebih mudah untuk menghasilkannya dalam larutan berair, dan menggunakan agen penurunan seperti sulfur dioksida untuk menghasilkan CuCl:

:2 CuCl<sub>2</sub>(ak)  +  SO<sub>2</sub>  →   2 CuCl(p)  +  2 HCl(ak)  +  H<sub>2</sub>SO<sub>4</sub>(ak)

CuCl<sub>2</sub> boleh bertindak sebagai sumber Cu<sup>2+</sup> dalam tindak balas mendakan untuk menghasilkan garam-garam kuprum(II) tak larut, contohnya kuprum(II) hidroksida, yang kemudiannya boleh mengurai pada suhu melebihi 30 °C untuk menghasilkan kuprum(II) oksida:

:CuCl<sub>2</sub>(ak)  +  2 NaOH(ak)  →   Cu(OH)<sub>2</sub>(p)  +  2 NaCl(ak)

Kemudian Cu(OH)<sub>2</sub>(p)  →  CuO(p)  +  2 H<sub>2</sub>O(ce)

== Penyediaan ==
Kuprum(II) klorida disediakan melalui tindak balas asid hidroklorik pada kuprum(II) oksida, kuprum(II) hidroksida atau kuprum(II) karbonat, contohnya:

:CuO<sub>(p)</sub>  +  2 HCl<sub>(aq)</sub>  →  CuCl<sub>2</sub><sub>(aq)</sub>  +  H<sub>2</sub>O<sub>(ce)</sub>

{{Chembox new
|   Name = Copper(II) chloride
|   ImageFile = copper(II) chloride dihydrate.jpg
<!-- | ImageSize = 200px -->
|   ImageName = copper(II) chloride dihydrate
|   ImageFile1 = Tolbachite-3D-balls.png
<!-- | ImageSize1 = 200px  -->
|   ImageName1 = Crystal structure of anhydrous copper(II) chloride
|   ImageFile2 = Tolbachite-3D-polyhedra.png
<!-- | ImageSize2 = 200px  -->
|   ImageName2 = Crystal structure of anhydrous copper(II) chloride
|   IUPACName = Copper(II) chloride<br />Copper dichloride
|   OtherNames = Cupric chloride
| Section1 = {{Chembox Identifiers
|   CASOther = [7447-39-4] (ahydrous)<br />10125-13-0] (dihydrate)
|   RTECS = GL7000000
  }}
| Section2 = {{Chembox Properties
|   Formula = CuCl<sub>2</sub>
|   MolarMass = 134.45 g/mol (anhydrous)<br />170.48 g/mol (dihydrate)
|   Appearance = blue-green solid (dihydrate)<br /> yellow-brown solid (anhydrous)
|   Density = 3.386 g/cm³, solid
|   Solubility = 70.6 g/100 mL (0 °C)<br />75.7 g/100 mL (25 °C)
|   Solvent = methanol
|   SolubleOther = 68 g/100 mL (15 °C)
|   Solvent = ethanol
|   SolubleOther = 53 g/100 mL (15 °C)
|   MeltingPt = 100 °C (dehydration<br />of dihydrate)
|   BoilingPt = decomposes at 993°C<br /> (anhydrous)
  }}
| Section3 = {{Chembox Structure
|   Coordination = Octahedral
|   CrystalStruct = distorted CdI<sub>2</sub> structure
  }}
| Section7 = {{Chembox Hazards
|   ExternalMSDS = [http://sciencelab.com/msds.php?msdsId=9923592 ScienceLab.com]
|   EUClass = not listed
|   FlashPt = nonflammable
  }}
| Section8 = {{Chembox Related
|   OtherAnions = Copper(II) fluoride<br />Copper(II) bromide<br />Copper(I) iodide<!-- this is not a typo, copper(II) iodide does not exist -->
|   OtherCations = Copper(I) chloride<br />Silver chloride<br />Gold(III) chloride
  }}
}}

'''Copper(II) chloride''' is the formula CuCl<sub>2</sub>.  This a yellow-brown solid which slowly absorbs moisture to form a blue-green dihydrate.  It occurs naturally as the very rare mineral eriochalcite.

==Structure==
Anhydrous CuCl<sub>2</sub> adopts a distorted bridge asymmetrically to other Cu centers.<ref>Wells, A.F. (1984) Structural Inorganic Chemistry, Oxford: Clarendon Press. ISBN 0-19-855370-6.</ref>

==Properties==
Copper(II) chloride dissociates in aqueous solution to give the blue color of [Cu(H<sub>2</sub>O)<sub>6</sub>]<sup>2+</sup> and yellow or red color of the halide complexes of the formula [CuCl<sub>2+x</sub>]<sup>x-</sup>.  Concentrated solutions of CuCl<sub>2</sub> appear green because of the combination of these various chromophores. The color of the dilute solution depends on temperature, being green around 100 °C and blue at room temperature.<ref>Alfred Swaine Taylor; Robert Eglesfeld Griffith. On Poisons, in Relation to Medical Jurisprudence and Medicine. Lea & Blanchard, 1848, p. 378.</ref> When copper(II) chloride is heated in a flame, it emits a green-blue colour.

It is a weak oxidizing agent.  It has a crystal structure consisting of polymeric chains of flat CuCl<sub>4</sub> units with opposite edges shared.  It decomposes to CuCl and Cl<sub>2</sub> at 1000 °C:
:2 CuCl<sub>2</sub>(s)  →  2 CuCl(s)  +  Cl<sub>2</sub>(g)
In its reaction with HCl (or other chloride sources) to form the complex ions CuCl<sub>3</sub><sup>-</sup> and CuCl<sub>4</sub><sup>2-</sup>.<ref></ref>

400px|''Equilibria of CuCl2 with chloride ion''

Some of these complexes can be crystallized from aqueous solution, and they adopt a wide variety structural types (Fig. 1).
<!--notice that the charge is incorrect in some drawings-->
480px|''Structure of some chloride complexes of CuCl2''

Copper(II) chloride also forms a rich variety of other coordination complexes with ligands such as pyridine or triphenylphosphine oxide:

:CuCl<sub>2</sub>  +  2 C<sub>5</sub>H<sub>5</sub>N  →  [CuCl<sub>2</sub>(C<sub>5</sub>H<sub>5</sub>N)<sub>2</sub>]  (tetragonal)
:CuCl<sub>2</sub>  +  2 (C<sub>6</sub>H<sub>5</sub>)<sub>3</sub>P=O  →  [CuCl<sub>2</sub>((C<sub>6</sub>H<sub>5</sub>)<sub>3</sub>P=O)<sub>2</sub>]  (tetrahedral)

However "soft" ligands such as reduction to give copper(I) complexes.  To convert copper(II) chloride to copper(I) derivatives it is generally more convenient to reduce an aqueous solution with the reducing agent sulfur dioxide:
:2 CuCl<sub>2</sub>(aq)  +  SO<sub>2</sub>  →   2 CuCl(s)  +  2 HCl(aq)  +  H<sub>2</sub>SO<sub>4</sub>(aq)

CuCl<sub>2</sub> can simply react as a source of Cu<sup>2+</sup> in precipitation reactions for making insoluble copper(II) salts, for example copper(II) hydroxide, which can then decompose above 30 °C to give copper(II) oxide:
:CuCl<sub>2</sub>(aq)  +  2 NaOH(aq)  →   Cu(OH)<sub>2</sub>(s)  +  2 NaCl(aq)

Followed by
:Cu(OH)<sub>2</sub>(s)  →  CuO(s)  +  H<sub>2</sub>O(l)

==Preparation==
Copper(II) chloride is prepared by the action of hydrochloric acid on copper(II) oxide, copper(II) hydroxide or copper(II) carbonate, for example:
:CuO<sub>(s)</sub>  +  2 HCl<sub>(aq)</sub>  →  CuCl<sub>2</sub><sub>(aq)</sub>  +  H<sub>2</sub>O<sub>(l)</sub>  Anhydrous CuCl<sub>2</sub> may be prepared directly by union of the elements, copper and chlorine.

CuCl<sub>2</sub> may be purified by crystallisation from hot dilute CaCl<sub>2</sub>-ice bath.<ref name = bertz>S. H. Bertz, E. H. Fairchild, in ''Handbook of Reagents for Organic Synthesis, Volume 1: Reagents, Auxiliaries and Catalysts for C-C Bond Formation'', (R. M. Coates, S. E. Denmark, eds.), pp. 220-3, Wiley, New York, 1999.</ref>

==Uses==
A major industrial application for copper(II) chloride is as a co-catalyst (along with PdCl<sub>2</sub> is reduced to Pd, and the CuCl<sub>2</sub> serves to re-oxidise this back to PdCl<sub>2</sub>.  Air can then oxidise the resultant CuCl back to CuCl<sub>2</sub>, completing the cycle.

(1) C<sub>2</sub>H<sub>4</sub>(g)  +  PdCl<sub>2</sub>(aq)  +  H<sub>2</sub>O (l)  →  CH<sub>3</sub>CHO (aq)  +  Pd(s) +  2 HCl(aq)