{{Chembox new
|   Name = Citric acid
|   ImageFile = Zitronensäure - Citric acid.svg
|   ImageSize = 150px
|   ImageFile1 = Citric-acid-3D-balls.png
|   ImageSize1 = 150px
|   ImageName = Citric acid
|   IUPACName = 2-hydroxypropane-1,2,3-tricarboxylic acid
|   OtherNames = 3-hydroxypentanedioic acid-3-carboxylic acid<br />
Hydrogen citrate
| Section1 = {{Chembox Identifiers
|   PubChem = 311
|   CASNo = 77-92-9
|   RTECS = 
  }}
| Section2 = {{Chembox Properties
|   Formula = C<sub>6</sub>H<sub>8</sub>O<sub>7</sub>
|   MolarMass = 192.123 g/mol (anhydrous)<br />210.14 g/mol (monohydrate)
|   Appearance = crystalline white solid
|   Density = 1.665 g/cm³
|   Solubility = 133 g/100 ml (20°C) 
|   MeltingPt = 153 °C 
|   BoilingPt = decomposes at 175 °C
|   pKa = pK<sub>a1</sub>=3.15<br />pK<sub>a2</sub>=4.77<br />pK<sub>a3</sub>=6.40
  }}
| Section7 = {{Chembox Hazards
|   MainHazards = skin and eye irritant
|   FlashPt = ?°C
|   RPhrases =  
|   SPhrases = 
  }}
| Section8 = {{Chembox Related
|   OtherCpds = sodium citrate, calcium citrate
  }}
}}

'''Citric acid''' is a weak organic living things. It also serves as an environmentally benign cleaning agent and acts as an antioxidant.

Citric acid exists in a variety of limes have particularly high concentrations of the acid; it can comprise as much as 8% of the dry weight of these fruits (1.44 and 1.38 grams per ounce of the juices, respectively<ref></ref>). The concentrations of citric acid in citrus fruits range from  .005 mol/L for oranges and grapefruits to .030 mol/L in lemons and limes.  These values will vary depending on the circumstances in which the fruit was grown.

==Properties==
thumb|left|150px|Citric acid crystal under polarized light, enlarged 200x
At room temperature, citric acid is a white crystalline powder.  It can exist either in an monohydrate.  The anhydrous form crystallizes from hot water, whereas the monohydrate forms when citric acid is crystallized from cold water.  The monohydrate can be converted to the anhydrous form by heating it above 74 °C.  Citric acid also dissolves in absolute (anhydrous) ethanol (76 parts of citric acid per 100 parts of ethanol) at 15 degrees Celsius.

In chemical structure, citric acid shares the properties of other water.

==Measurement==
Citric acid has been used as an additive to soft drinks, beer, and seltzer, and occurs naturally in many juices.  This causes a problem in measurement because the standard measuring technique for sugar is refractive index.  The refractive index of sugar and citric acid is almost identical.  For soft drinks and orange juice the best measure of sweetness is the sugar/acid ratio.  Recently, the use of infrared sensors has allowed measurement of both Brix (sugar content) and acidity by detecting sugars and citric acid through their characteristic molecular vibrations; this gives an accurate assessment of a drink's sweetness.

==History==
150px|thumb|left|Lemons, oranges and other citrus fruit contain high concentrations of citric acid.
The discovery of citric acid has been credited to the alchemist Jabir Ibn Hayyan (Geber).<!--How? Did he isolate it? More details would be helpful--> Medieval scholars in Europe were aware of the acidic nature of lemon and lime juices; such knowledge is recorded in the 13th century Swedish chemist Italian citrus fruit industry.

In 1893, C. Wehmer discovered that ''American food chemist James Currie discovered that certain strains of the mold ''Aspergillus niger'' could be efficient citric acid producers, and Pfizer began industrial-level production using this technique two years later, followed by Citrique Belge in 1929.

==Production==
thumb|right|225px|Citric acid monohydrate
In this production technique, which is still the major industrial route to citric acid used today, cultures of ''precipitating it with lime (calcium hydroxide) to yield calcium citrate salt, from which citric acid is regenerated by treatment with sulfuric acid.

==Krebs cycle==

Citric acid is one of a series of compounds involved in the physiological oxidation of fats, proteins, and carbohydrates to carbon dioxide and water.

This series of chemical reactions is central to nearly all reactions, and is the source of two-thirds of the food-derived energy in higher organisms. It was discovered by Sir Hans Adolf Krebs. Krebs received the 1953 Nobel Prize in Physiology or Medicine for the discovery. The series of reactions is known by various names, including the ''citric acid cycle'', the ''Krebs cycle'', and the ''tricarboxylic acid cycle'' (or ''TCA cycle'').

==Uses==

In 2007 world wide annual production stands at approximatley 1700.000 MT/y. More than 50% of this volume is being produced in China.
More than 50% is being used as acidulent in beverages and some 20% in other food applications. 20% is being used for detergent applications and 10% for other non food related applications like cosmetics and chemical industry.

===Food additive===
As a buffering properties of citrates are used to control pH in household cleaners and pharmaceuticals. In the United States the purity requirements for citric acid as a food additive is defined by the [http://www.usp.org/fcc/ Food Chemical Codex] (FCC), which is published by the United States Pharmacopoeia (USP).

===Water softening===
Citric acid's ability to chelate metals makes it useful in soaps and laundry detergents.  By chelating the metals in hard water, it lets these cleaners produce foam and work better without need for water softening.  In a similar manner, citric acid is used to regenerate the ion exchange materials used in water softeners by stripping off the accumulated metal ions as citrate complexes. (It does not regenerate the resin. It simply cleans it by changing the valence number of the metals attached to the resin, so that the sodium or potassium ions can effectively remove the metals, opening up more ion exchange sites on the resin bead. Also, phosphoric acid is more commonly used to accomplish this.)

===Others===
Citric acid is used in the biotechnology and pharmaceutical industry to passivate high purity process piping (in lieu of using nitric acid). Nitric acid is considered hazardous to dispose once used for this purpose, while citric acid is not.

Citric acid is the active ingredient in some bathroom and kitchen cleaning solutions. A solution with a 6% concentration of citric acid will remove hard water stains from glass without scrubbing.  In industry it is used to dissolve rust from steel.<ref>[http://www.angelfire.com/mt/chemicalcleaning/webboiler.html Use of ammoniated citric acid for the chemical cleaning of high pressure boilers.]</ref>

Citric acid is commonly used as a buffer to increase the solubility of brown heroin. Single-use citric acid sachets have been used as an inducement to get heroin users to exchange their dirty needles for clean needles in an attempt to decrease the spread of AIDS and hepatitis<ref>Garden, J., Roberts, K., Taylor, A., and Robinson, D. (2003).  "Evaluation of the Provision of Single Use Citric Acid Sachets to Injecting Drug Users" [http://www.drugmisuse.isdscotland.org/eiu/pdfs/citric_acid_full.pdf (pdf)].  Scottish Center for Infection and Environmental Health.</ref>.  Other acidifiers used for brown heroin are ascorbic acid, acetic acid, and lactic acid; in their absence, a drug user will often substitute lemon juice or vinegar.

Citric acid is one of the chemicals required for the synthesis of HMTD, a highly heat-, friction-, and shock-sensitive explosive similar to acetone peroxide. Purchases of large quantities of citric acid may rouse suspicion of potential terrorist activity.

{{Chembox new
|   Name = クエン酸
|   ImageFile = Zitronensäure - Citric acid.svg
|   ImageSize = 150px
|   ImageFile1 = Citric-acid-3D-balls.png
|   ImageSize1 = 150px
|   ImageName = Citric acid
|   IUPACName = 2-ヒドロキシプロパン-1,2,3-トリカルボン酸
|   OtherNames = 3-ヒドロキシペンタン二酸-3-カルボン酸
| Section1 = {{Chembox Identifiers
|   PubChem = 311
|   CASNo = 77-92-9
|   RTECS = 
  }}
| Section2 = {{Chembox Properties
|   Formula = C<sub>6</sub>H<sub>8</sub>O<sub>7</sub>
|   MolarMass = 192.12 g/mol （無水物）<br />210.14 g/mol （一水和物）
|   Appearance = 白色結晶
|   Density = 1.665 g/cm<sup>3</sup>
|   Solubility = 133g/100 mL (20 ) 
|   MeltingPt = 100  （一水和物）<br />153  （無水物）
|   BoilingPt = 175  （分解）
|   pKa = p''K''<sub>a1</sub> = 3.15<br />p''K''<sub>a2</sub> = 4.77<br />p''K''<sub>a3</sub> = 6.40
  }}
| Section7 = {{Chembox Hazards
|   MainHazards = 皮膚と目を刺激する
|   FlashPt = 
|   RPhrases =  
|   SPhrases = 
  }}
| Section8 = {{Chembox Related
|   OtherCpds = クエン酸ナトリウム、クエン酸カルシウム
  }}
}}
'''クエン酸'''（クエンさん、枸櫞酸、citric acid）は柑橘類などに含まれる有機化合物で、ヒドロキシ酸のひとつ。化学式C<sub>6</sub>H<sub>8</sub>O<sub>7</sub>、分子量は 192.13。CAS登録番号は [77-92-9]（無水物）、[5949-29-1]（一水和物）。カルボキシ基を 3個有する弱酸で、爽やかな酸味を持つことから食品添加物として多用される。

== 性質 ==
水溶液は弱p''K''<sub>a</sub> = 2.87）を呈する。常温で無色あるいは白色の固体であり、無水物と一水和物の結晶がある。両者とも揮発性は無く無臭である。一水和物は加熱すると、100で融解し、130に保つと融点153の無水物となる。175以上では分子内脱水によりアコニット酸となる。金属イオンとキレート錯体を作ることが知られている。

== 生体内物質 ==
生体内ではクエン酸回路の構成成分であり、オキサロ酢酸とアセチルCoAとの反応によって生成する。また、アコニターゼによってcis-アコニット酸を経て異性化されイソクエン酸となる。また、クエン酸は解糖系のホスホフルクトキナーゼ活性をフィードバック阻害し、解糖系からクエン酸回路への流入を調節する因子の1つでもある。

== 製法・分布 ==
thumb|left|[[レモンやグレープフルーツといった柑橘類はクエン酸を含む。]]
潮解性があるので保存には注意が必要。工業的にはデンプンあるいは糖をコウジカビの一種 ''Aspergillus niger'' で発酵させて作られている。

漢字では「枸櫞酸」と記されるが、枸櫞とは中国産のレモン（シトロン）の一種を指す。レモンをはじめ柑橘類に多く含まれていることからこの名がついた。柑橘類の酸味の原因はクエン酸の味に因るものが多い。また、梅干しにも多量に含まれている。

== 利用 ==
各種サプリメントの成分として多用される。サプリメントの説明によると、クエン酸を摂取すると運動時に嫌気呼吸が起こらないために乳酸が生成されず疲れにくい、とされている<!--（しかし、「ためしてガッテン」などで、乳酸が疲労の原因というのは間違いという証明が紹介された）-->。また、エタノールの分解を助けるとされる。一般に、クエン酸や乳酸など体液成分のアニオン性電解質が増大すると利尿作用があらわれることが知られている。

また塩は治療薬として処方され、代謝性アシドーシスの治療にも使用される。

また食品添加物でもあり、清涼飲料水を始め各種の加工食品に添加される。

クエン酸の水溶液に溶解することを 「く溶性」という言葉で表し、肥料の表示などで使われる。

== クエン酸塩 ==
アルカリ金属塩の正塩はいずれも水に可溶、アルコールに難溶で水溶液は弱アルカリ性を示す。重金属塩は水に不溶なものが多いが、クエン酸イオンが過剰にあると、複数配位することで水溶性となるものもある。