{{Chimiebox général|
nom = Dichlorure d'éthylène| 
image = 1,2-dichloroethane.png|150px|1,2-Dichloroethane|
tailleimage = 150|
formule =  C<sub>2</sub>H<sub>4</sub>Cl<sub>2</sub>|
nom scientifique = 1,2-dichloroéthane|
CAS =  107-06-2 |
ATC =  |
apparence = liquide incolore <br>odeur caractéristique
}}
|----
|Autres noms || Dichlorure d'éthylène <br> dichlorure d'éthane <br> dichloroéthylène <br> bichlorure d'éthylène
|----
|Notation SMILES||ClCCCl
|----

|-----

|-----

|-----
|Point d'ébullition || 83,5 - 84 °C sous 1 bar
|-----

|-----

Le '''dichlorure d'éthylène''', (1,2-PVC. Comme solvant et dégraissant, il sert à retirer des peintures et à dégraisser des métaux. C'est un hydrocarbure chloré dangereux pour les reins. On l'obtient par l'action de l'éthylène sur le chlore.

==Histoire==
En 1794, un groupe de quatre amis hollandais, connu sous le nom de ''Gezelschap der Hollandsche Scheikensleishen'' (Société de chimistes hollandais), composé du médecin Jan Rudolph Deerman, du marchand Adriaan Paets van Troopstwijkity, du chimiste Anthoni Lauwerenburgest et du botaniste Nicolaas Bondtitigutrud furent les premiers à produire le 1,2-dichloroéthane à partir du gaz oléfiant (mélange d'éthylène et de chlore). En reconnaissance de leurs recherches et de leurs publications, jouissant à l'époque d'une bonne réputation, le 1,2-dichloroéthane est connu sous le nom d 'huile hollandaise' ('''Dutch oil'''), dans l'histoire de la chimie.

==Production==
Le 1,2-dichloroéthane peut être produit par chloration directe de l'éthylène en phase liquide, catalysée par le chlorure ferrique III, à une température avoisinant 50 °C. 
: H<sub>2</sub>C=CH<sub>2</sub> + Cl<sub>2</sub> → Cl-CH<sub>2</sub>-CH<sub>2</sub>-Cl
Lors de certaines réactions, par exemple sur le chlorure de vinyle (chloroéthène), il se forme du chlorure d'hydrogène qui est réutilisé dans une réaction (catalysée par le chlorure de cuivre II) pour aboutir au 1,2-dichloréthane à partir de l'éthène et de l'oxygène.
: H<sub>2</sub>C=CH<sub>2</sub> + 2 HCl + ½ O<sub>2</sub> → Cl-CH<sub>2</sub>-CH<sub>2</sub>-Cl + H<sub>2</sub>O
Cette réaction se produit à 200-300 °C sous une pression de 0,5 Mpa.

==Utilisations==

{{Chembox new
|   Name = 1,2-Dichloroethane 
|   ImageFile = 1,2-dichloroethane.png  
|   ImageSize = 150px  
|   ImageName = 1,2-Dichloroethane  
|   ImageFile1 = 1,2-dichloroethane-3D-vdW.png  
|   ImageSize1 = 150px  
|   ImageName1 = 1,2-Dichloroethane  
|   IUPACName = 1,2-dichloroethane  
|   OtherNames = Ethylene dichloride<br/>Ethane dichloride<br/>Dutch liquid, Dutch oil<br/>Freon 150
| Section1 = {{Chembox Identifiers
|   SMILES = ClCCCl  
|   CASNo = 107-06-2  
|   RTECS = KI0525000  
  }}
| Section2 = {{Chembox Properties
|   Formula = C<sub>2</sub>H<sub>4</sub>Cl<sub>2</sub>  
|   MolarMass = 98.96 g/mol  
|   Appearance = Colourless liquid with<br/>characteristic odour  
|   Density = 1.253 g/cm³, liquid  
|   Solubility = 0.87 g/100 ml (20 °C)  
|   MeltingPt = -35 °C (238 K)  
|   BoilingPt = 83.5&ndash;84.0 °C (357 K)  
|   Viscosity = 0.84 mPa·s at 20 °C  
  }}
| Section3 = {{Chembox Structure
|   Dipole = 1.80 D  
  }}
| Section7 = {{Chembox Hazards
|   MainHazards = toxic, flammable, corrosive  
|   NFPA-H = 2   
|   NFPA-F = 3   
|   NFPA-R =  
|   FlashPt = 13 °C  
|   RPhrases = , , 
|   SPhrases = , 
  }}
| Section8 = {{Chembox Related
|   Function = haloalkanes  
|   OtherFunctn = 1,1,1-trichloroethane  
|   OtherCpds = ethylene<br/>chlorine<br/>vinyl chloride<br/>polyvinyl chloride 
  
  }}
}}

The precursor for PVC production.  It is a colourless liquid with a chloroform-like odour. 1,2-Dichloroethane is also used generally as an intermediate for other organic chemical compounds, and as a solvent.

==History==
In Dutch friends under the name of ''Gezelschap der Hollandsche Scheikundigen'' (Society of Dutch Chemists) consisted of physician Jan Rudolph Deiman, merchant Adriaan Paets van Troostwijk, chemist Anthoni Lauwerenburg and botanist Nicolaas Bondt. They were the first to produce 1,2-dichloroethane from olefiant gas (oil-making gas, ethylene) and chlorine gas.  Although the ''Gezelschap'' in practice didn't do much in-depth scientific research, they and their publications where highly regarded. Part of that acknowledgement is that 1,2-dichloroethane has been called '''Dutch oil''' in old chemistry.

==Chemistry==
1,2-Dichloroethane has chemical formula <sub>2</sub><sub>4</sub><sub>2</sub>.

''Cf.'' 1,1-Dichloroethane (ethylidene dichloride).

==Production==
Every year 17.5 million tons of 1,2-dichloroethane are produced in the United States, Western Europe and Japan.<ref>{{cite journal
|author=J.A. Field & R. Sierra-Alvarez
|year=2004
|title=Biodegradability of chlorinated solvents and related chlorinated aliphatic compounds
|journal=Rev. Environ. Sci. Biotechnol.
|volume=3
|pages=185–254
|doi=10.1007/s11157-004-4733-8
}}</ref> This is primarily achieved through the iron(III) chloride catalysed reaction of ethene (ethylene) and chlorine.

: H<sub>2</sub>C=CH<sub>2</sub> + Cl<sub>2</sub> → Cl-CH<sub>2</sub>-CH<sub>2</sub>-Cl

In subsequent reactions, notably to vinyl chloride (chloroethene), hydrogen chloride is formed and re-used in a copper(II) chloride catalysed reaction, to also produce 1,2-dichloroethane from ethene and oxygen.

: H<sub>2</sub>C=CH<sub>2</sub> + 2 HCl + ½ O<sub>2</sub> → Cl-CH<sub>2</sub>-CH<sub>2</sub>-Cl + H<sub>2</sub>O

==Uses==
===Vinyl chloride monomer (VCM) production===

With approximately 80% of the world's consumption of 1,2-dichloroethane, the major application is in the production of vinyl chloride monomer (VCM, chloroethene), which is the precursor to polyvinyl chloride under the formation of hydrogen chloride.