{{Chembox new
|   Name = Carminic acid
|   Reference =<ref>''Merck Index'', 11th Edition, '''1850'''.</ref>
|   ImageFile = Carminic acid structure.png
<!-- | ImageSize = 233px -->
|   ImageName = Chemical structure of carminic acid
|   IUPACName =<small>7-α-D-Glucopyranosyl-9,10-dihydro-<br />3,5,6,8-tetrahydroxy-1-methyl-9,10-<br />dioxoanthracenecarboxylic acid
|   OtherNames = Carminic acid<br />C.I. Natural Red 4<br />C.I. 75470
| Section1 = {{Chembox Identifiers
|   CASNo = 1260-17-9
|   SMILES =<small>Cc1c(C(O)=O)c(O)cc2C(=O)c3c(O)c<br />(O)c([C@H]4O[C@H](CO)[C@@H](O)<br />[C@H](O)[C@H]4O)c(O)c3C(=O)c12<small>
  }}
| Section2 = {{Chembox Properties
|   Formula = C<sub>22</sub>H<sub>20</sub>O<sub>13</sub>
|   MolarMass = 492.38 g/mol
|   Density = ? g/cm<sup>3</sup>
|   MeltingPt = 120 °C (''decomp.'')
  }}
}}

'''Carminic acid''' (C<sub>22</sub>H<sub>20</sub>O<sub>13</sub>) is a red glucosidal hydroxyanthrapurin that occurs naturally in some scale insects, such as the cochineal and the Polish cochineal. The insects produce the acid as a feeding deterrent. Carminic acid is the colouring agent in carmine.  Synonyms are C.I. 75470 and C.I. Natural Red 4.

The chemical structure of carminic acid consists of a core anthraquinone structure linked to a glucose sugar unit.  Carminic acid was first synthesized by organic chemists in 1991.<ref>Allevi, P. et al. 1991. The 1st Total Synthesis of Carminic Acid. ''Journal of the Chemical Society-Chemical Communications'' 18:1319-1320.</ref>

{{Chembox new
|   Name = Ácido carmínico
|   Reference =<ref>''Merck Index'', 11th Edition, '''1850'''.</ref>
|   ImageFile = Carminic acid structure.png
<!-- | ImageSize = 233px -->
|   ImageName = Chemical structure of carminic acid
|   IUPACName =<small>7-α-D-Glucopiranosil-9,10-dihidro-<br />3,5,6,8-tetrahidroxi-1-metil-9,10-<br />ácido dioxoantracenocarboxílico
|   OtherNames = Ácido carmínico<br />C.I. Natural Red 4<br />C.I. 75470
| Section1 = {{Chembox Identifiers
|   CASNo = 1260-17-9
|   SMILES =<small>Cc1c(C(O)=O)c(O)cc2C(=O)c3c(O)c<br />(O)c([C@H]4O[C@H](CO)[C@@H](O)<br />[C@H](O)[C@H]4O)c(O)c3C(=O)c12<small>
  }}
| Section2 = {{Chembox Properties
|   Formula = C<sub>22</sub>H<sub>20</sub>O<sub>13</sub>
|   MolarMass = 492.38 g/mol
|   Density = ? g/cm<sup>3</sup>
|   MeltingPt = 120 °C (''decomp.'')
  }}
}}

O '''ácido carmínico''' (C<sub>22</sub>H<sub>20</sub>O<sub>13</sub>) é uma hidroxiantapurina glucosídica vermelha que ocorre naturalmente em alguns insectos como a cochonilha. Os insectos produzem o ácido como dissuasor contra os seus predadores. O ácido carmínico é o corante presente nas carminas. Sinónimos: CI 75470 e Vermelho Natural 4.

A estrutura química do ácido carmínico consiste de uma estrutura tipo antraquinona nuclear ligada a uma unidade de glicose. O ácido carmínico foi sintetizado pela primeira vez por químicos orgânicos em 1991<ref>Allevi, P. et al. 1991. The 1st Total Synthesis of Carminic Acid. ''Journal of the Chemical Society-Chemical Communications'' 18:1319-1320.</ref>.